<?xml version="1.0"?> 
<VTKFile type="UnstructuredGrid" version="0.1"> 
<UnstructuredGrid> 
<Piece NumberOfPoints="5" NumberOfCells="4"> 
<PointData>
<DataArray type="Float64" Name="Displacement" format="ascii" NumberOfComponents="3"> 
-1.06421 1.60346 1.23468 -0.229626 -1.50616 -0.444628 -0.155941 0.276068 -0.261164 0.443422 0.391894 -1.25068 -0.947961 -0.741106 -0.507818 </DataArray> 
</PointData> 
<CellData>
<DataArray type="Float64" Name="Density" format="ascii" NumberOfComponents="1"> 
-0.19224 -0.27407 1.53007 -0.249025 </DataArray> 
</CellData> 
<Points> 
<DataArray type="Float64" NumberOfComponents="3"> 
0 0 0 2.5 2.5 2.5 5 5 5 7.5 7.5 7.5 10 10 10 
</DataArray> 
</Points> 
<Cells> 
<DataArray type="Int32" Name="connectivity">
0 1 1 2 2 3 3 4 
 </DataArray> 
<DataArray type="Int32" Name="offsets"> 
2 4 6 8 </DataArray> 
<DataArray type="Int32" Name="types"> 
3 3 3 3 </DataArray>
</Cells> 
</Piece> 
</UnstructuredGrid> 
</VTKFile> 
