<?xml version="1.0"?> 
<VTKFile type="UnstructuredGrid" version="0.1"> 
<UnstructuredGrid> 
<Piece NumberOfPoints="9" NumberOfCells="4"> 
<PointData>
<DataArray type="Float64" Name="Displacement" format="ascii" NumberOfComponents="3"> 
0.62519 0.183227 -1.02977 0.949222 0.307062 0.135175 0.515246 0.261406 -0.941486 -0.162338 -0.146055 -0.532011 1.6821 -0.875729 -0.483815 -0.712005 -1.17421 -0.19224 -0.27407 1.53007 -0.249025 -1.06421 1.60346 1.23468 -0.229626 -1.50616 -0.444628 </DataArray> 
</PointData> 
<CellData>
<DataArray type="Float64" Name="Density" format="ascii" NumberOfComponents="1"> 
-0.155941 0.276068 -0.261164 0.443422 </DataArray> 
</CellData> 
<Points> 
<DataArray type="Float64" NumberOfComponents="3"> 
0 0 0 5 0 0 10 0 0 0 4 0 5 4 0 10 4 0 0 8 0 5 8 0 10 8 0 
</DataArray> 
</Points> 
<Cells> 
<DataArray type="Int32" Name="connectivity">
0 3 4 1 1 4 5 2 3 6 7 4 4 7 8 5 
 </DataArray> 
<DataArray type="Int32" Name="offsets"> 
4 8 12 16 </DataArray> 
<DataArray type="Int32" Name="types"> 
9 9 9 9 </DataArray>
</Cells> 
</Piece> 
</UnstructuredGrid> 
</VTKFile> 
