<?xml version="1.0"?> 
<VTKFile type="UnstructuredGrid" version="0.1"> 
<UnstructuredGrid> 

<Piece NumberOfPoints="6" NumberOfCells="5"> 
<Points> 
<DataArray type="Float64" NumberOfComponents="3"> 
0.225 0 1.13 0.515 0 2.05 0.98 0 2.93 1.8 0 3.6 3.4 0 3.4 5.25 0 0 
</DataArray> 
</Points> 
<Cells> 
<DataArray type="Int32" Name="connectivity">
0 1 1 2 2 3 3 4 4 5 
</DataArray> 
<DataArray type="Int32" Name="offsets"> 
2 4 6 8 10 </DataArray> 
<DataArray type="Int32" Name="types"> 
3 3 3 3 3 </DataArray>
</Cells> 
<PointData>
<DataArray type="Float64" Name="Displacement" format="ascii" NumberOfComponents="3"> 
1 1 1 2 2 2 3 3 3 4 4 4 5 5 5 6 6 6 </DataArray> 
</PointData> 
<CellData>
<DataArray type="Float64" Name="Density" format="ascii" NumberOfComponents="1"> 
1 2 3 4 5 6 </DataArray> 
</CellData> 
</Piece> 

<Piece NumberOfPoints="6" NumberOfCells="5"> 
<Points> 
<DataArray type="Float64" NumberOfComponents="3"> 
0 0.225 1.13 0 0.515 2.05 0 0.98 2.93 0 1.8 3.6 0 3.4 3.4 0 5.25 0 
</DataArray> 
</Points> 
<Cells> 
<DataArray type="Int32" Name="connectivity">
0 1 1 2 2 3 3 4 4 5 
</DataArray> 
<DataArray type="Int32" Name="offsets"> 
2 4 6 8 10 </DataArray> 
<DataArray type="Int32" Name="types"> 
3 3 3 3 3 </DataArray>
</Cells> 
<PointData>
<DataArray type="Float64" Name="Displacement" format="ascii" NumberOfComponents="3"> 
1 1 1 2 2 2 3 3 3 4 4 4 5 5 5 6 6 6 </DataArray> 
</PointData> 
<CellData>
<DataArray type="Float64" Name="Density" format="ascii" NumberOfComponents="1"> 
1 2 3 4 5 6 </DataArray> 
</CellData> 
</Piece> 

<Piece NumberOfPoints="6" NumberOfCells="5"> 
<Points> 
<DataArray type="Float64" NumberOfComponents="3"> 
-0.225 0 1.13 -0.515 0 2.05 -0.98 0 2.93 -1.8 0 3.6 -3.4 0 3.4 -5.25 0 0 
</DataArray> 
</Points> 
<Cells> 
<DataArray type="Int32" Name="connectivity">
0 1 1 2 2 3 3 4 4 5 
</DataArray> 
<DataArray type="Int32" Name="offsets"> 
2 4 6 8 10 </DataArray> 
<DataArray type="Int32" Name="types"> 
3 3 3 3 3 </DataArray>
</Cells> 
<PointData>
<DataArray type="Float64" Name="Displacement" format="ascii" NumberOfComponents="3"> 
1 1 1 2 2 2 3 3 3 4 4 4 5 5 5 6 6 6 </DataArray> 
</PointData> 
<CellData>
<DataArray type="Float64" Name="Density" format="ascii" NumberOfComponents="1"> 
1 2 3 4 5 6 </DataArray> 
</CellData> 
</Piece> 

<Piece NumberOfPoints="6" NumberOfCells="5"> 
<Points> 
<DataArray type="Float64" NumberOfComponents="3"> 
0 -0.225 1.13 0 -0.515 2.05 0 -0.98 2.93 0 -1.8 3.6 0 -3.4 3.4 0 -5.25 0 
</DataArray> 
</Points> 
<Cells> 
<DataArray type="Int32" Name="connectivity">
0 1 1 2 2 3 3 4 4 5 
</DataArray> 
<DataArray type="Int32" Name="offsets"> 
2 4 6 8 10 </DataArray> 
<DataArray type="Int32" Name="types"> 
3 3 3 3 3 </DataArray>
</Cells> 
<PointData>
<DataArray type="Float64" Name="Displacement" format="ascii" NumberOfComponents="3"> 
1 1 1 2 2 2 3 3 3 4 4 4 5 5 5 6 6 6 </DataArray> 
</PointData> 
<CellData>
<DataArray type="Float64" Name="Density" format="ascii" NumberOfComponents="1"> 
1 2 3 4 5 6 </DataArray> 
</CellData> 
</Piece> 

<Piece NumberOfPoints="12" NumberOfCells="6"> 
<Points> 
<DataArray type="Float64" NumberOfComponents="3"> 
-0.4 -1 1 0.7 -0.7 1 1.4 0.75 1 2.6 2.3 1 -0.8 -0.8 1 0 0 1.7 0.6 0.6 1.4 2 2 1.3 -1 -0.4 1 -0.7 0.7 1 0.75 1.4 1 2.3 2.6 1 
</DataArray> 
</Points> 
<Cells> 
<DataArray type="Int32" Name="connectivity">
0 4 5 1 1 5 6 2 2 6 7 3 4 8 9 5 5 9 10 6 6 10 11 7 
</DataArray> 
<DataArray type="Int32" Name="offsets"> 
4 8 12 16 20 24 </DataArray> 
<DataArray type="Int32" Name="types"> 
9 9 9 9 9 9 </DataArray>
</Cells> 
<PointData>
<DataArray type="Float64" Name="Displacement" format="ascii" NumberOfComponents="3"> 
2.44572 4.91989 4.31015 5.8119 3.188 1.95087 0.633775 3.66575 4.67281 2.54072 0.54494 1.59883 0.92194 1.68603 2.64051 3.16286 2.74455 5.25223 3.10831 5.66174 3.82625 5.74616 1.44424 4.05673 1.73439 4.03085 4.17084 0.407957 1.52874 1.34424 4.007 5.06635 2.06677 4.68312 4.05199 0.0402919 </DataArray> 
</PointData> 
<CellData>
<DataArray type="Float64" Name="Density" format="ascii" NumberOfComponents="1"> 
3.61302 2.32063 5.49595 0.00690634 2.77469 2.54609 </DataArray> 
</CellData> 
</Piece> 
</UnstructuredGrid> 
</VTKFile> 
