<?xml version="1.0"?> 
<VTKFile type="UnstructuredGrid" version="0.1"> 
<UnstructuredGrid> 
<Piece NumberOfPoints="60" NumberOfCells="24"> 
<PointData>
<DataArray type="Float64" Name="Displacement" format="ascii" NumberOfComponents="3"> 
0.45938 0.05034 0.228688 0.834189 0.0156447 0.863711 0.0780691 0.669043 0.500211 0.217994 0.571616 0.122189 0.671166 0.599586 0.0559762 0.056343 0.152501 0.0196211 0.435176 0.832221 0.61739 0.520129 0.863868 0.0976979 0.908052 0.108017 0.516997 0.143156 0.559371 0.00457962 0.766682 0.848709 0.916821 0.986968 0.505133 0.271422 0.100751 0.507849 0.585609 0.762887 0.0829626 0.661596 0.516979 0.171048 0.938558 0.590483 0.440635 0.941919 0.655914 0.451946 0.839697 0.532624 0.553887 0.680066 0.36719 0.239291 0.578923 0.866887 0.406777 0.112615 0.443846 0.300184 0.401387 0.833364 0.403629 0.390176 0.360449 0.140255 0.26013 0.0868151 0.429397 0.257283 0.297555 0.424858 0.119207 0.495067 0.706407 0.243573 0.78507 0.0740896 0.393883 0.00339412 0.220677 0.00130057 0.18918 0.142484 0.268076 0.174892 0.138649 0.598886 0.901058 0.93938 0.221184 0.482671 0.376011 0.52378 0.264873 0.0683572 0.436327 0.173853 0.0261071 0.954678 0.430597 0.961559 0.762414 0.00734866 0.680039 0.705951 0.645129 0.55231 0.218109 0.772366 0.228028 0.370865 0.890929 0.856377 0.402434 0.318019 0.608635 0.910195 0.909098 0.591594 0.332571 0.853064 0.442398 0.904355 0.0331794 0.532426 0.716497 0.179302 0.336533 0.187713 0.321927 0.403857 0.548566 0.0487386 0.552732 0.274811 0.241502 0.243145 0.154159 0.956416 0.935661 0.818714 0.728262 0.175812 0.360371 0.18879 0.0011984 0.31642 0.699617 0.625255 0.543062 0.439037 0.287427 0.501659 0.761546 0.762408 0.576056 0.747663 0.645535 0.12322 0.504398 0.347261 0.0921477 0.147849 0.19817 0.67227 0.431511 0.694404 0.256785 0.00975865 0.532283 0.279392 0.94623 0.906443 0.392685 0.0248552 0.671437 0.837171 </DataArray> 
</PointData> 
<CellData>
<DataArray type="Float64" Name="Density" format="ascii" NumberOfComponents="1"> 
0.9715 0.0569329 0.450324 0.58247 0.686638 0.719433 0.650041 0.726915 0.373848 0.581582 0.116119 0.0576544 0.979765 0.284824 0.594974 0.962161 0.185778 0.19304 0.341644 0.932898 0.390668 0.273217 0.151947 0.397109 </DataArray> 
</CellData> 
<Points> 
<DataArray type="Float64" NumberOfComponents="3"> 
1 1 1 2 1 1 3 1 1 4 1 1 5 1 1 1 2 1 2 2 1 3 2 1 4 2 1 5 2 1 1 3 1 2 3 1 3 3 1 4 3 1 5 3 1 1 1 2 2 1 2 3 1 2 4 1 2 5 1 2 1 2 2 2 2 2 3 2 2 4 2 2 5 2 2 1 3 2 2 3 2 3 3 2 4 3 2 5 3 2 1 1 3 2 1 3 3 1 3 4 1 3 5 1 3 1 2 3 2 2 3 3 2 3 4 2 3 5 2 3 1 3 3 2 3 3 3 3 3 4 3 3 5 3 3 1 1 4 2 1 4 3 1 4 4 1 4 5 1 4 1 2 4 2 2 4 3 2 4 4 2 4 5 2 4 1 3 4 2 3 4 3 3 4 4 3 4 5 3 4 
</DataArray> 
</Points> 
<Cells> 
<DataArray type="Int32" Name="connectivity">
0 1 6 5 15 16 21 20 1 2 7 6 16 17 22 21 2 3 8 7 17 18 23 22 3 4 9 8 18 19 24 23 5 6 11 10 20 21 26 25 6 7 12 11 21 22 27 26 7 8 13 12 22 23 28 27 8 9 14 13 23 24 29 28 15 16 21 20 30 31 36 35 16 17 22 21 31 32 37 36 17 18 23 22 32 33 38 37 18 19 24 23 33 34 39 38 20 21 26 25 35 36 41 40 21 22 27 26 36 37 42 41 22 23 28 27 37 38 43 42 23 24 29 28 38 39 44 43 30 31 36 35 45 46 51 50 31 32 37 36 46 47 52 51 32 33 38 37 47 48 53 52 33 34 39 38 48 49 54 53 35 36 41 40 50 51 56 55 36 37 42 41 51 52 57 56 37 38 43 42 52 53 58 57 38 39 44 43 53 54 59 58 
 </DataArray> 
<DataArray type="Int32" Name="offsets"> 
8 16 24 32 40 48 56 64 72 80 88 96 104 112 120 128 136 144 152 160 168 176 184 192 </DataArray> 
<DataArray type="Int32" Name="types"> 
12 12 12 12 12 12 12 12 12 12 12 12 12 12 12 12 12 12 12 12 12 12 12 12 </DataArray>
</Cells> 
</Piece> 
</UnstructuredGrid> 
</VTKFile> 
