<?xml version="1.0"?> 
<VTKFile type="UnstructuredGrid" version="0.1"> 
<UnstructuredGrid> 
<Piece NumberOfPoints="3" NumberOfCells="2"> 
<PointData>
<DataArray type="Float64" Name="Displacement" format="ascii" NumberOfComponents="3"> 
1 0 0 0 0 0 2 0 0 </DataArray> 
</PointData> 
<CellData>
<DataArray type="Float64" Name="Density" format="ascii" NumberOfComponents="1"> 
2 1 </DataArray> 
</CellData> 
<Points> 
<DataArray type="Float64" NumberOfComponents="3"> 
0 0 0 5 5 0 10 0 0 
</DataArray> 
</Points> 
<Cells> 
<DataArray type="Int32" Name="connectivity">
0 1 1 2
 </DataArray> 
<DataArray type="Int32" Name="offsets"> 
2 4 </DataArray> 
<DataArray type="Int32" Name="types"> 
3 3 </DataArray>
</Cells> 
</Piece> 
</UnstructuredGrid> 
</VTKFile> 
