<?xml version="1.0"?> 
<VTKFile type="UnstructuredGrid" version="0.1"> 
<UnstructuredGrid> 
<Piece NumberOfPoints="5" NumberOfCells="4"> 
<Points> 
<DataArray type="Float64" NumberOfComponents="3"> 
0 0 0 1 2 0 2 1 0 3 2 0 4 0 0 
</DataArray> 
</Points> 
<Cells> 
<DataArray type="Int32" Name="connectivity">
0 1 1 2 2 3 3 4 
 </DataArray> 
<DataArray type="Int32" Name="offsets"> 
2 4 6 8 </DataArray> 
<DataArray type="Int32" Name="types"> 
3 3 3 3 </DataArray>
</Cells> 
<PointData>
<DataArray type="Float64" Name="Displacement" format="ascii" NumberOfComponents="3"> 
0 0 0 4 4 4 1 1 1 5 5 5 3 3 3 </DataArray> 
</PointData> 
<CellData>
<DataArray type="Float64" Name="Density" format="ascii" NumberOfComponents="1"> 
1 0 2 1 </DataArray> 
</CellData> 
</Piece> 
</UnstructuredGrid> 
</VTKFile> 
